<?xml version="1.0"?>
<VTKFile type="PolyData" version="0.1" byte_order="LittleEndian">
  <PolyData>
    <Piece NumberOfPoints="     51" NumberOfVerts="  0" NumberOfLines="     50"
           NumberOfStrips="  0" NumberOfPolys="      0">
      <Points>
        <DataArray type="Float32" NumberOfComponents="3" format="ascii">
                       0.00000                       0.00000                       0.00000
                       0.00000                       0.00000                       2.33390
                       0.00000                       0.00000                       4.66781
                       0.00000                       0.00000                       7.00171
                       0.00000                       0.00000                       9.33562
                       0.00000                       0.00000                      11.66952
                       0.00000                       0.00000                      14.00342
                       0.00000                       0.00000                      16.33733
                       0.00000                       0.00000                      18.67123
                       0.00000                       0.00000                      21.00514
                       0.00000                       0.00000                      23.33904
                       0.00000                       0.00000                      25.67294
                       0.00000                       0.00000                      28.00685
                       0.00000                       0.00000                      30.34075
                       0.00000                       0.00000                      32.67466
                       0.00000                       0.00000                      35.00856
                       0.00000                       0.00000                      37.34246
                       0.00000                       0.00000                      39.67637
                       0.00000                       0.00000                      42.01027
                       0.00000                       0.00000                      44.34418
                       0.00000                       0.00000                      46.67808
                       0.00000                       0.00000                      49.01199
                       0.00000                       0.00000                      51.34589
                       0.00000                       0.00000                      53.67979
                       0.00000                       0.00000                      56.01369
                       0.00000                       0.00000                      58.34760
                       0.00000                       0.00000                      60.68150
                       0.00000                       0.00000                      63.01541
                       0.00000                       0.00000                      65.34931
                       0.00000                       0.00000                      67.68321
                       0.00000                       0.00000                      70.01712
                       0.00000                       0.00000                      72.35102
                       0.00000                       0.00000                      74.68493
                       0.00000                       0.00000                      77.01883
                       0.00000                       0.00000                      79.35274
                       0.00000                       0.00000                      81.68664
                       0.00000                       0.00000                      84.02055
                       0.00000                       0.00000                      86.35445
                       0.00000                       0.00000                      88.68835
                       0.00000                       0.00000                      91.02225
                       0.00000                       0.00000                      93.35616
                       0.00000                       0.00000                      95.69006
                       0.00000                       0.00000                      98.02397
                       0.00000                       0.00000                     100.35787
                       0.00000                       0.00000                     102.69177
                       0.00000                       0.00000                     105.02568
                       0.00000                       0.00000                     107.35958
                       0.00000                       0.00000                     109.69349
                       0.00000                       0.00000                     112.02739
                       0.00000                       0.00000                     114.36130
                       0.00000                       0.00000                     116.69520
        </DataArray>
      </Points>
      <PointData>
        <DataArray type="Float32" Name="RefOrientationX" NumberOfComponents="3" format="ascii">
                       0.96321                      -0.26875                       0.00000
                       0.96265                      -0.27076                       0.00000
                       0.96341                      -0.26802                       0.00000
                       0.96525                      -0.26132                       0.00000
                       0.96790                      -0.25135                       0.00000
                       0.97108                      -0.23874                       0.00000
                       0.97457                      -0.22408                       0.00000
                       0.97815                      -0.20789                       0.00000
                       0.98166                      -0.19063                       0.00000
                       0.98497                      -0.17274                       0.00000
                       0.98798                      -0.15459                       0.00000
                       0.99064                      -0.13653                       0.00000
                       0.99291                      -0.11883                       0.00000
                       0.99481                      -0.10176                       0.00000
                       0.99634                      -0.08551                       0.00000
                       0.99753                      -0.07025                       0.00000
                       0.99843                      -0.05610                       0.00000
                       0.99907                      -0.04316                       0.00000
                       0.99950                      -0.03148                       0.00000
                       0.99978                      -0.02108                       0.00000
                       0.99993                      -0.01198                       0.00000
                       0.99999                      -0.00413                       0.00000
                       1.00000                       0.00249                       0.00000
                       0.99997                       0.00797                       0.00000
                       0.99992                       0.01238                       0.00000
                       0.99988                       0.01581                       0.00000
                       0.99983                       0.01837                       0.00000
                       0.99980                       0.02017                       0.00000
                       0.99977                       0.02132                       0.00000
                       0.99976                       0.02194                       0.00000
                       0.99975                       0.02215                       0.00000
                       0.99976                       0.02206                       0.00000
                       0.99976                       0.02178                       0.00000
                       0.99977                       0.02141                       0.00000
                       0.99978                       0.02104                       0.00000
                       0.99978                       0.02074                       0.00000
                       0.99979                       0.02056                       0.00000
                       0.99979                       0.02055                       0.00000
                       0.99979                       0.02071                       0.00000
                       0.99978                       0.02105                       0.00000
                       0.99977                       0.02152                       0.00000
                       0.99976                       0.02205                       0.00000
                       0.99975                       0.02255                       0.00000
                       0.99974                       0.02288                       0.00000
                       0.99974                       0.02287                       0.00000
                       0.99975                       0.02230                       0.00000
                       0.99978                       0.02091                       0.00000
                       0.99983                       0.01841                       0.00000
                       0.99990                       0.01442                       0.00000
                       0.99996                       0.00856                       0.00000
                       1.00000                       0.00035                       0.00000
        </DataArray>
        <DataArray type="Float32" Name="RefOrientationY" NumberOfComponents="3" format="ascii">
                       0.26875                       0.96321                       0.00000
                       0.27076                       0.96265                       0.00000
                       0.26802                       0.96341                       0.00000
                       0.26132                       0.96525                       0.00000
                       0.25135                       0.96790                       0.00000
                       0.23874                       0.97108                       0.00000
                       0.22408                       0.97457                       0.00000
                       0.20789                       0.97815                       0.00000
                       0.19063                       0.98166                       0.00000
                       0.17274                       0.98497                       0.00000
                       0.15459                       0.98798                       0.00000
                       0.13653                       0.99064                       0.00000
                       0.11883                       0.99291                       0.00000
                       0.10176                       0.99481                       0.00000
                       0.08551                       0.99634                       0.00000
                       0.07025                       0.99753                       0.00000
                       0.05610                       0.99843                       0.00000
                       0.04316                       0.99907                       0.00000
                       0.03148                       0.99950                       0.00000
                       0.02108                       0.99978                       0.00000
                       0.01198                       0.99993                       0.00000
                       0.00413                       0.99999                       0.00000
                      -0.00249                       1.00000                       0.00000
                      -0.00797                       0.99997                       0.00000
                      -0.01238                       0.99992                       0.00000
                      -0.01581                       0.99988                       0.00000
                      -0.01837                       0.99983                       0.00000
                      -0.02017                       0.99980                       0.00000
                      -0.02132                       0.99977                       0.00000
                      -0.02194                       0.99976                       0.00000
                      -0.02215                       0.99975                       0.00000
                      -0.02206                       0.99976                       0.00000
                      -0.02178                       0.99976                       0.00000
                      -0.02141                       0.99977                       0.00000
                      -0.02104                       0.99978                       0.00000
                      -0.02074                       0.99978                       0.00000
                      -0.02056                       0.99979                       0.00000
                      -0.02055                       0.99979                       0.00000
                      -0.02071                       0.99979                       0.00000
                      -0.02105                       0.99978                       0.00000
                      -0.02152                       0.99977                       0.00000
                      -0.02205                       0.99976                       0.00000
                      -0.02255                       0.99975                       0.00000
                      -0.02288                       0.99974                       0.00000
                      -0.02287                       0.99974                       0.00000
                      -0.02230                       0.99975                       0.00000
                      -0.02091                       0.99978                       0.00000
                      -0.01841                       0.99983                       0.00000
                      -0.01442                       0.99990                       0.00000
                      -0.00856                       0.99996                       0.00000
                      -0.00035                       1.00000                       0.00000
        </DataArray>
        <DataArray type="Float32" Name="RefOrientationZ" NumberOfComponents="3" format="ascii">
                       0.00000                       0.00000                       1.00000
                       0.00000                       0.00000                       1.00000
                       0.00000                       0.00000                       1.00000
                       0.00000                       0.00000                       1.00000
                       0.00000                       0.00000                       1.00000
                       0.00000                       0.00000                       1.00000
                       0.00000                       0.00000                       1.00000
                       0.00000                       0.00000                       1.00000
                       0.00000                       0.00000                       1.00000
                       0.00000                       0.00000                       1.00000
                       0.00000                       0.00000                       1.00000
                       0.00000                       0.00000                       1.00000
                       0.00000                       0.00000                       1.00000
                       0.00000                       0.00000                       1.00000
                       0.00000                       0.00000                       1.00000
                       0.00000                       0.00000                       1.00000
                       0.00000                       0.00000                       1.00000
                       0.00000                       0.00000                       1.00000
                       0.00000                       0.00000                       1.00000
                       0.00000                       0.00000                       1.00000
                       0.00000                       0.00000                       1.00000
                       0.00000                       0.00000                       1.00000
                       0.00000                       0.00000                       1.00000
                       0.00000                       0.00000                       1.00000
                       0.00000                       0.00000                       1.00000
                       0.00000                       0.00000                       1.00000
                       0.00000                       0.00000                       1.00000
                       0.00000                       0.00000                       1.00000
                       0.00000                       0.00000                       1.00000
                       0.00000                       0.00000                       1.00000
                       0.00000                       0.00000                       1.00000
                       0.00000                       0.00000                       1.00000
                       0.00000                       0.00000                       1.00000
                       0.00000                       0.00000                       1.00000
                       0.00000                       0.00000                       1.00000
                       0.00000                       0.00000                       1.00000
                       0.00000                       0.00000                       1.00000
                       0.00000                       0.00000                       1.00000
                       0.00000                       0.00000                       1.00000
                       0.00000                       0.00000                       1.00000
                       0.00000                       0.00000                       1.00000
                       0.00000                       0.00000                       1.00000
                       0.00000                       0.00000                       1.00000
                       0.00000                       0.00000                       1.00000
                       0.00000                       0.00000                       1.00000
                       0.00000                       0.00000                       1.00000
                       0.00000                       0.00000                       1.00000
                       0.00000                       0.00000                       1.00000
                       0.00000                       0.00000                       1.00000
                       0.00000                       0.00000                       1.00000
                       0.00000                       0.00000                       1.00000
        </DataArray>
      </PointData>
      <Lines>
        <DataArray type="Int32" Name="connectivity" format="ascii">
      0      1
      1      2
      2      3
      3      4
      4      5
      5      6
      6      7
      7      8
      8      9
      9     10
     10     11
     11     12
     12     13
     13     14
     14     15
     15     16
     16     17
     17     18
     18     19
     19     20
     20     21
     21     22
     22     23
     23     24
     24     25
     25     26
     26     27
     27     28
     28     29
     29     30
     30     31
     31     32
     32     33
     33     34
     34     35
     35     36
     36     37
     37     38
     38     39
     39     40
     40     41
     41     42
     42     43
     43     44
     44     45
     45     46
     46     47
     47     48
     48     49
     49     50
        </DataArray>
        <DataArray type="Int32" Name="offsets" format="ascii">
      2
      4
      6
      8
     10
     12
     14
     16
     18
     20
     22
     24
     26
     28
     30
     32
     34
     36
     38
     40
     42
     44
     46
     48
     50
     52
     54
     56
     58
     60
     62
     64
     66
     68
     70
     72
     74
     76
     78
     80
     82
     84
     86
     88
     90
     92
     94
     96
     98
    100
        </DataArray>
      </Lines>
    </Piece>
  </PolyData>
</VTKFile>
