<?xml version="1.0"?>
<VTKFile type="PolyData" version="0.1" byte_order="LittleEndian">
  <PolyData>
    <Piece NumberOfPoints="     51" NumberOfVerts="  0" NumberOfLines="     50"
           NumberOfStrips="  0" NumberOfPolys="      0">
      <Points>
        <DataArray type="Float32" NumberOfComponents="3" format="ascii">
                       0.00000                       0.00000                       0.00000
                       0.00000                       0.00000                       2.34000
                       0.00000                       0.00000                       4.68000
                       0.00000                       0.00000                       7.01999
                       0.00000                       0.00000                       9.35999
                       0.00000                       0.00000                      11.69999
                       0.00000                       0.00000                      14.03999
                       0.00000                       0.00000                      16.37999
                       0.00000                       0.00000                      18.71998
                       0.00000                       0.00000                      21.05998
                       0.00000                       0.00000                      23.39998
                       0.00000                       0.00000                      25.73998
                       0.00000                       0.00000                      28.07998
                       0.00000                       0.00000                      30.41997
                       0.00000                       0.00000                      32.75997
                       0.00000                       0.00000                      35.09997
                       0.00000                       0.00000                      37.43997
                       0.00000                       0.00000                      39.77996
                       0.00000                       0.00000                      42.11996
                       0.00000                       0.00000                      44.45996
                       0.00000                       0.00000                      46.79996
                       0.00000                       0.00000                      49.13996
                       0.00000                       0.00000                      51.47996
                       0.00000                       0.00000                      53.81995
                       0.00000                       0.00000                      56.15995
                       0.00000                       0.00000                      58.49995
                       0.00000                       0.00000                      60.83995
                       0.00000                       0.00000                      63.17995
                       0.00000                       0.00000                      65.51994
                       0.00000                       0.00000                      67.85994
                       0.00000                       0.00000                      70.19994
                       0.00000                       0.00000                      72.53994
                       0.00000                       0.00000                      74.87994
                       0.00000                       0.00000                      77.21993
                       0.00000                       0.00000                      79.55993
                       0.00000                       0.00000                      81.89993
                       0.00000                       0.00000                      84.23993
                       0.00000                       0.00000                      86.57993
                       0.00000                       0.00000                      88.91992
                       0.00000                       0.00000                      91.25992
                       0.00000                       0.00000                      93.59992
                       0.00000                       0.00000                      95.93992
                       0.00000                       0.00000                      98.27991
                       0.00000                       0.00000                     100.61991
                       0.00000                       0.00000                     102.95992
                       0.00000                       0.00000                     105.29991
                       0.00000                       0.00000                     107.63991
                       0.00000                       0.00000                     109.97990
                       0.00000                       0.00000                     112.31990
                       0.00000                       0.00000                     114.65990
                       0.00000                       0.00000                     116.99990
        </DataArray>
      </Points>
      <PointData>
        <DataArray type="Float32" Name="RefOrientationX" NumberOfComponents="3" format="ascii">
                       0.96321                      -0.26875                       0.00000
                       0.96436                      -0.26460                       0.00000
                       0.96618                      -0.25786                       0.00000
                       0.96850                      -0.24900                       0.00000
                       0.97115                      -0.23846                       0.00000
                       0.97398                      -0.22662                       0.00000
                       0.97687                      -0.21384                       0.00000
                       0.97971                      -0.20044                       0.00000
                       0.98242                      -0.18668                       0.00000
                       0.98495                      -0.17282                       0.00000
                       0.98727                      -0.15907                       0.00000
                       0.98934                      -0.14561                       0.00000
                       0.99117                      -0.13259                       0.00000
                       0.99276                      -0.12014                       0.00000
                       0.99411                      -0.10834                       0.00000
                       0.99526                      -0.09726                       0.00000
                       0.99621                      -0.08696                       0.00000
                       0.99700                      -0.07745                       0.00000
                       0.99763                      -0.06874                       0.00000
                       0.99815                      -0.06081                       0.00000
                       0.99856                      -0.05363                       0.00000
                       0.99889                      -0.04715                       0.00000
                       0.99915                      -0.04133                       0.00000
                       0.99935                      -0.03610                       0.00000
                       0.99951                      -0.03138                       0.00000
                       0.99963                      -0.02711                       0.00000
                       0.99973                      -0.02319                       0.00000
                       0.99981                      -0.01955                       0.00000
                       0.99987                      -0.01611                       0.00000
                       0.99992                      -0.01279                       0.00000
                       0.99995                      -0.00952                       0.00000
                       0.99998                      -0.00624                       0.00000
                       1.00000                      -0.00289                       0.00000
                       1.00000                       0.00056                       0.00000
                       0.99999                       0.00416                       0.00000
                       0.99997                       0.00792                       0.00000
                       0.99993                       0.01182                       0.00000
                       0.99987                       0.01585                       0.00000
                       0.99980                       0.01997                       0.00000
                       0.99971                       0.02410                       0.00000
                       0.99960                       0.02816                       0.00000
                       0.99949                       0.03202                       0.00000
                       0.99937                       0.03553                       0.00000
                       0.99926                       0.03851                       0.00000
                       0.99917                       0.04075                       0.00000
                       0.99912                       0.04198                       0.00000
                       0.99912                       0.04194                       0.00000
                       0.99919                       0.04027                       0.00000
                       0.99933                       0.03662                       0.00000
                       0.99953                       0.03057                       0.00000
                       0.99977                       0.02164                       0.00000
        </DataArray>
        <DataArray type="Float32" Name="RefOrientationY" NumberOfComponents="3" format="ascii">
                       0.26875                       0.96321                       0.00000
                       0.26460                       0.96436                       0.00000
                       0.25786                       0.96618                       0.00000
                       0.24900                       0.96850                       0.00000
                       0.23846                       0.97115                       0.00000
                       0.22662                       0.97398                       0.00000
                       0.21384                       0.97687                       0.00000
                       0.20044                       0.97971                       0.00000
                       0.18668                       0.98242                       0.00000
                       0.17282                       0.98495                       0.00000
                       0.15907                       0.98727                       0.00000
                       0.14561                       0.98934                       0.00000
                       0.13259                       0.99117                       0.00000
                       0.12014                       0.99276                       0.00000
                       0.10834                       0.99411                       0.00000
                       0.09726                       0.99526                       0.00000
                       0.08696                       0.99621                       0.00000
                       0.07745                       0.99700                       0.00000
                       0.06874                       0.99763                       0.00000
                       0.06081                       0.99815                       0.00000
                       0.05363                       0.99856                       0.00000
                       0.04715                       0.99889                       0.00000
                       0.04133                       0.99915                       0.00000
                       0.03610                       0.99935                       0.00000
                       0.03138                       0.99951                       0.00000
                       0.02711                       0.99963                       0.00000
                       0.02319                       0.99973                       0.00000
                       0.01955                       0.99981                       0.00000
                       0.01611                       0.99987                       0.00000
                       0.01279                       0.99992                       0.00000
                       0.00952                       0.99995                       0.00000
                       0.00624                       0.99998                       0.00000
                       0.00289                       1.00000                       0.00000
                      -0.00056                       1.00000                       0.00000
                      -0.00416                       0.99999                       0.00000
                      -0.00792                       0.99997                       0.00000
                      -0.01182                       0.99993                       0.00000
                      -0.01585                       0.99987                       0.00000
                      -0.01997                       0.99980                       0.00000
                      -0.02410                       0.99971                       0.00000
                      -0.02816                       0.99960                       0.00000
                      -0.03202                       0.99949                       0.00000
                      -0.03553                       0.99937                       0.00000
                      -0.03851                       0.99926                       0.00000
                      -0.04075                       0.99917                       0.00000
                      -0.04198                       0.99912                       0.00000
                      -0.04194                       0.99912                       0.00000
                      -0.04027                       0.99919                       0.00000
                      -0.03662                       0.99933                       0.00000
                      -0.03057                       0.99953                       0.00000
                      -0.02164                       0.99977                       0.00000
        </DataArray>
        <DataArray type="Float32" Name="RefOrientationZ" NumberOfComponents="3" format="ascii">
                       0.00000                       0.00000                       1.00000
                       0.00000                       0.00000                       1.00000
                       0.00000                       0.00000                       1.00000
                       0.00000                       0.00000                       1.00000
                       0.00000                       0.00000                       1.00000
                       0.00000                       0.00000                       1.00000
                       0.00000                       0.00000                       1.00000
                       0.00000                       0.00000                       1.00000
                       0.00000                       0.00000                       1.00000
                       0.00000                       0.00000                       1.00000
                       0.00000                       0.00000                       1.00000
                       0.00000                       0.00000                       1.00000
                       0.00000                       0.00000                       1.00000
                       0.00000                       0.00000                       1.00000
                       0.00000                       0.00000                       1.00000
                       0.00000                       0.00000                       1.00000
                       0.00000                       0.00000                       1.00000
                       0.00000                       0.00000                       1.00000
                       0.00000                       0.00000                       1.00000
                       0.00000                       0.00000                       1.00000
                       0.00000                       0.00000                       1.00000
                       0.00000                       0.00000                       1.00000
                       0.00000                       0.00000                       1.00000
                       0.00000                       0.00000                       1.00000
                       0.00000                       0.00000                       1.00000
                       0.00000                       0.00000                       1.00000
                       0.00000                       0.00000                       1.00000
                       0.00000                       0.00000                       1.00000
                       0.00000                       0.00000                       1.00000
                       0.00000                       0.00000                       1.00000
                       0.00000                       0.00000                       1.00000
                       0.00000                       0.00000                       1.00000
                       0.00000                       0.00000                       1.00000
                       0.00000                       0.00000                       1.00000
                       0.00000                       0.00000                       1.00000
                       0.00000                       0.00000                       1.00000
                       0.00000                       0.00000                       1.00000
                       0.00000                       0.00000                       1.00000
                       0.00000                       0.00000                       1.00000
                       0.00000                       0.00000                       1.00000
                       0.00000                       0.00000                       1.00000
                       0.00000                       0.00000                       1.00000
                       0.00000                       0.00000                       1.00000
                       0.00000                       0.00000                       1.00000
                       0.00000                       0.00000                       1.00000
                       0.00000                       0.00000                       1.00000
                       0.00000                       0.00000                       1.00000
                       0.00000                       0.00000                       1.00000
                       0.00000                       0.00000                       1.00000
                       0.00000                       0.00000                       1.00000
                       0.00000                       0.00000                       1.00000
        </DataArray>
      </PointData>
      <Lines>
        <DataArray type="Int32" Name="connectivity" format="ascii">
      0      1
      1      2
      2      3
      3      4
      4      5
      5      6
      6      7
      7      8
      8      9
      9     10
     10     11
     11     12
     12     13
     13     14
     14     15
     15     16
     16     17
     17     18
     18     19
     19     20
     20     21
     21     22
     22     23
     23     24
     24     25
     25     26
     26     27
     27     28
     28     29
     29     30
     30     31
     31     32
     32     33
     33     34
     34     35
     35     36
     36     37
     37     38
     38     39
     39     40
     40     41
     41     42
     42     43
     43     44
     44     45
     45     46
     46     47
     47     48
     48     49
     49     50
        </DataArray>
        <DataArray type="Int32" Name="offsets" format="ascii">
      2
      4
      6
      8
     10
     12
     14
     16
     18
     20
     22
     24
     26
     28
     30
     32
     34
     36
     38
     40
     42
     44
     46
     48
     50
     52
     54
     56
     58
     60
     62
     64
     66
     68
     70
     72
     74
     76
     78
     80
     82
     84
     86
     88
     90
     92
     94
     96
     98
    100
        </DataArray>
      </Lines>
    </Piece>
  </PolyData>
</VTKFile>
