<?xml version="1.0"?>
<VTKFile type="PolyData" version="0.1" byte_order="LittleEndian">
  <PolyData>
    <Piece NumberOfPoints="      6" NumberOfVerts="  0" NumberOfLines="      0"
           NumberOfStrips="  0" NumberOfPolys="      0">
      <Points>
        <DataArray type="Float32" NumberOfComponents="3" format="ascii">
                       0.00000                       0.00000                       0.00000
                       0.00000                       0.00000                       7.76612
                       0.00000                       0.00000                      23.62675
                       0.00000                       0.00000                      42.48346
                       0.00000                       0.00000                      58.34409
                       0.00000                       0.00000                      66.11021
        </DataArray>
      </Points>
      <PointData>
        <DataArray type="Float32" Name="RefOrientationX" NumberOfComponents="3" format="ascii">
                       0.96321                      -0.26875                       0.00000
                       0.97414                      -0.22593                       0.00000
                       0.99939                      -0.03499                       0.00000
                       0.99977                       0.02165                       0.00000
                       0.99977                       0.02139                       0.00000
                       1.00000                       0.00035                       0.00000
        </DataArray>
        <DataArray type="Float32" Name="RefOrientationY" NumberOfComponents="3" format="ascii">
                       0.26875                       0.96321                       0.00000
                       0.22593                       0.97414                       0.00000
                       0.03499                       0.99939                       0.00000
                      -0.02165                       0.99977                       0.00000
                      -0.02139                       0.99977                       0.00000
                      -0.00035                       1.00000                       0.00000
        </DataArray>
        <DataArray type="Float32" Name="RefOrientationZ" NumberOfComponents="3" format="ascii">
                       0.00000                       0.00000                       1.00000
                       0.00000                       0.00000                       1.00000
                       0.00000                       0.00000                       1.00000
                       0.00000                       0.00000                       1.00000
                       0.00000                       0.00000                       1.00000
                       0.00000                       0.00000                       1.00000
        </DataArray>
      </PointData>
    </Piece>
  </PolyData>
</VTKFile>
