<?xml version="1.0"?>
<VTKFile type="PolyData" version="0.1" byte_order="LittleEndian">
  <PolyData>
    <Piece NumberOfPoints="     51" NumberOfVerts="  0" NumberOfLines="     50"
           NumberOfStrips="  0" NumberOfPolys="      0">
      <Points>
        <DataArray type="Float32" NumberOfComponents="3" format="ascii">
                       0.00000                       0.00000                       0.00000
                       0.00000                       0.00000                       1.32220
                       0.00000                       0.00000                       2.64441
                       0.00000                       0.00000                       3.96661
                       0.00000                       0.00000                       5.28882
                       0.00000                       0.00000                       6.61102
                       0.00000                       0.00000                       7.93323
                       0.00000                       0.00000                       9.25543
                       0.00000                       0.00000                      10.57763
                       0.00000                       0.00000                      11.89984
                       0.00000                       0.00000                      13.22204
                       0.00000                       0.00000                      14.54425
                       0.00000                       0.00000                      15.86645
                       0.00000                       0.00000                      17.18865
                       0.00000                       0.00000                      18.51086
                       0.00000                       0.00000                      19.83306
                       0.00000                       0.00000                      21.15527
                       0.00000                       0.00000                      22.47747
                       0.00000                       0.00000                      23.79967
                       0.00000                       0.00000                      25.12188
                       0.00000                       0.00000                      26.44408
                       0.00000                       0.00000                      27.76629
                       0.00000                       0.00000                      29.08849
                       0.00000                       0.00000                      30.41070
                       0.00000                       0.00000                      31.73290
                       0.00000                       0.00000                      33.05510
                       0.00000                       0.00000                      34.37731
                       0.00000                       0.00000                      35.69951
                       0.00000                       0.00000                      37.02172
                       0.00000                       0.00000                      38.34392
                       0.00000                       0.00000                      39.66613
                       0.00000                       0.00000                      40.98833
                       0.00000                       0.00000                      42.31054
                       0.00000                       0.00000                      43.63274
                       0.00000                       0.00000                      44.95494
                       0.00000                       0.00000                      46.27715
                       0.00000                       0.00000                      47.59935
                       0.00000                       0.00000                      48.92155
                       0.00000                       0.00000                      50.24376
                       0.00000                       0.00000                      51.56596
                       0.00000                       0.00000                      52.88817
                       0.00000                       0.00000                      54.21037
                       0.00000                       0.00000                      55.53258
                       0.00000                       0.00000                      56.85478
                       0.00000                       0.00000                      58.17699
                       0.00000                       0.00000                      59.49919
                       0.00000                       0.00000                      60.82139
                       0.00000                       0.00000                      62.14360
                       0.00000                       0.00000                      63.46580
                       0.00000                       0.00000                      64.78800
                       0.00000                       0.00000                      66.11021
        </DataArray>
      </Points>
      <PointData>
        <DataArray type="Float32" Name="RefOrientationX" NumberOfComponents="3" format="ascii">
                       0.96321                      -0.26875                       0.00000
                       0.96274                      -0.27043                       0.00000
                       0.96355                      -0.26752                       0.00000
                       0.96539                      -0.26079                       0.00000
                       0.96801                      -0.25090                       0.00000
                       0.97115                      -0.23846                       0.00000
                       0.97459                      -0.22401                       0.00000
                       0.97811                      -0.20807                       0.00000
                       0.98157                      -0.19109                       0.00000
                       0.98484                      -0.17348                       0.00000
                       0.98782                      -0.15561                       0.00000
                       0.99046                      -0.13781                       0.00000
                       0.99273                      -0.12034                       0.00000
                       0.99463                      -0.10347                       0.00000
                       0.99618                      -0.08737                       0.00000
                       0.99739                      -0.07222                       0.00000
                       0.99831                      -0.05814                       0.00000
                       0.99898                      -0.04523                       0.00000
                       0.99944                      -0.03353                       0.00000
                       0.99973                      -0.02308                       0.00000
                       0.99990                      -0.01388                       0.00000
                       0.99998                      -0.00591                       0.00000
                       1.00000                       0.00086                       0.00000
                       0.99998                       0.00651                       0.00000
                       0.99994                       0.01110                       0.00000
                       0.99989                       0.01472                       0.00000
                       0.99985                       0.01746                       0.00000
                       0.99981                       0.01945                       0.00000
                       0.99978                       0.02077                       0.00000
                       0.99977                       0.02154                       0.00000
                       0.99976                       0.02188                       0.00000
                       0.99976                       0.02190                       0.00000
                       0.99976                       0.02169                       0.00000
                       0.99977                       0.02135                       0.00000
                       0.99978                       0.02098                       0.00000
                       0.99979                       0.02063                       0.00000
                       0.99979                       0.02038                       0.00000
                       0.99979                       0.02026                       0.00000
                       0.99979                       0.02028                       0.00000
                       0.99979                       0.02045                       0.00000
                       0.99978                       0.02074                       0.00000
                       0.99978                       0.02109                       0.00000
                       0.99977                       0.02140                       0.00000
                       0.99977                       0.02157                       0.00000
                       0.99977                       0.02144                       0.00000
                       0.99978                       0.02081                       0.00000
                       0.99981                       0.01944                       0.00000
                       0.99985                       0.01706                       0.00000
                       0.99991                       0.01334                       0.00000
                       0.99997                       0.00791                       0.00000
                       1.00000                       0.00035                       0.00000
        </DataArray>
        <DataArray type="Float32" Name="RefOrientationY" NumberOfComponents="3" format="ascii">
                       0.26875                       0.96321                       0.00000
                       0.27043                       0.96274                       0.00000
                       0.26752                       0.96355                       0.00000
                       0.26079                       0.96539                       0.00000
                       0.25090                       0.96801                       0.00000
                       0.23846                       0.97115                       0.00000
                       0.22401                       0.97459                       0.00000
                       0.20807                       0.97811                       0.00000
                       0.19109                       0.98157                       0.00000
                       0.17348                       0.98484                       0.00000
                       0.15561                       0.98782                       0.00000
                       0.13781                       0.99046                       0.00000
                       0.12034                       0.99273                       0.00000
                       0.10347                       0.99463                       0.00000
                       0.08737                       0.99618                       0.00000
                       0.07222                       0.99739                       0.00000
                       0.05814                       0.99831                       0.00000
                       0.04523                       0.99898                       0.00000
                       0.03353                       0.99944                       0.00000
                       0.02308                       0.99973                       0.00000
                       0.01388                       0.99990                       0.00000
                       0.00591                       0.99998                       0.00000
                      -0.00086                       1.00000                       0.00000
                      -0.00651                       0.99998                       0.00000
                      -0.01110                       0.99994                       0.00000
                      -0.01472                       0.99989                       0.00000
                      -0.01746                       0.99985                       0.00000
                      -0.01945                       0.99981                       0.00000
                      -0.02077                       0.99978                       0.00000
                      -0.02154                       0.99977                       0.00000
                      -0.02188                       0.99976                       0.00000
                      -0.02190                       0.99976                       0.00000
                      -0.02169                       0.99976                       0.00000
                      -0.02135                       0.99977                       0.00000
                      -0.02098                       0.99978                       0.00000
                      -0.02063                       0.99979                       0.00000
                      -0.02038                       0.99979                       0.00000
                      -0.02026                       0.99979                       0.00000
                      -0.02028                       0.99979                       0.00000
                      -0.02045                       0.99979                       0.00000
                      -0.02074                       0.99978                       0.00000
                      -0.02109                       0.99978                       0.00000
                      -0.02140                       0.99977                       0.00000
                      -0.02157                       0.99977                       0.00000
                      -0.02144                       0.99977                       0.00000
                      -0.02081                       0.99978                       0.00000
                      -0.01944                       0.99981                       0.00000
                      -0.01706                       0.99985                       0.00000
                      -0.01334                       0.99991                       0.00000
                      -0.00791                       0.99997                       0.00000
                      -0.00035                       1.00000                       0.00000
        </DataArray>
        <DataArray type="Float32" Name="RefOrientationZ" NumberOfComponents="3" format="ascii">
                       0.00000                       0.00000                       1.00000
                       0.00000                       0.00000                       1.00000
                       0.00000                       0.00000                       1.00000
                       0.00000                       0.00000                       1.00000
                       0.00000                       0.00000                       1.00000
                       0.00000                       0.00000                       1.00000
                       0.00000                       0.00000                       1.00000
                       0.00000                       0.00000                       1.00000
                       0.00000                       0.00000                       1.00000
                       0.00000                       0.00000                       1.00000
                       0.00000                       0.00000                       1.00000
                       0.00000                       0.00000                       1.00000
                       0.00000                       0.00000                       1.00000
                       0.00000                       0.00000                       1.00000
                       0.00000                       0.00000                       1.00000
                       0.00000                       0.00000                       1.00000
                       0.00000                       0.00000                       1.00000
                       0.00000                       0.00000                       1.00000
                       0.00000                       0.00000                       1.00000
                       0.00000                       0.00000                       1.00000
                       0.00000                       0.00000                       1.00000
                       0.00000                       0.00000                       1.00000
                       0.00000                       0.00000                       1.00000
                       0.00000                       0.00000                       1.00000
                       0.00000                       0.00000                       1.00000
                       0.00000                       0.00000                       1.00000
                       0.00000                       0.00000                       1.00000
                       0.00000                       0.00000                       1.00000
                       0.00000                       0.00000                       1.00000
                       0.00000                       0.00000                       1.00000
                       0.00000                       0.00000                       1.00000
                       0.00000                       0.00000                       1.00000
                       0.00000                       0.00000                       1.00000
                       0.00000                       0.00000                       1.00000
                       0.00000                       0.00000                       1.00000
                       0.00000                       0.00000                       1.00000
                       0.00000                       0.00000                       1.00000
                       0.00000                       0.00000                       1.00000
                       0.00000                       0.00000                       1.00000
                       0.00000                       0.00000                       1.00000
                       0.00000                       0.00000                       1.00000
                       0.00000                       0.00000                       1.00000
                       0.00000                       0.00000                       1.00000
                       0.00000                       0.00000                       1.00000
                       0.00000                       0.00000                       1.00000
                       0.00000                       0.00000                       1.00000
                       0.00000                       0.00000                       1.00000
                       0.00000                       0.00000                       1.00000
                       0.00000                       0.00000                       1.00000
                       0.00000                       0.00000                       1.00000
                       0.00000                       0.00000                       1.00000
        </DataArray>
      </PointData>
      <Lines>
        <DataArray type="Int32" Name="connectivity" format="ascii">
      0      1
      1      2
      2      3
      3      4
      4      5
      5      6
      6      7
      7      8
      8      9
      9     10
     10     11
     11     12
     12     13
     13     14
     14     15
     15     16
     16     17
     17     18
     18     19
     19     20
     20     21
     21     22
     22     23
     23     24
     24     25
     25     26
     26     27
     27     28
     28     29
     29     30
     30     31
     31     32
     32     33
     33     34
     34     35
     35     36
     36     37
     37     38
     38     39
     39     40
     40     41
     41     42
     42     43
     43     44
     44     45
     45     46
     46     47
     47     48
     48     49
     49     50
        </DataArray>
        <DataArray type="Int32" Name="offsets" format="ascii">
      2
      4
      6
      8
     10
     12
     14
     16
     18
     20
     22
     24
     26
     28
     30
     32
     34
     36
     38
     40
     42
     44
     46
     48
     50
     52
     54
     56
     58
     60
     62
     64
     66
     68
     70
     72
     74
     76
     78
     80
     82
     84
     86
     88
     90
     92
     94
     96
     98
    100
        </DataArray>
      </Lines>
    </Piece>
  </PolyData>
</VTKFile>
