<?xml version="1.0"?>
<VTKFile type="PolyData" version="0.1" byte_order="LittleEndian">
  <PolyData>
    <Piece NumberOfPoints="     51" NumberOfVerts="  0" NumberOfLines="     50"
           NumberOfStrips="  0" NumberOfPolys="      0">
      <Points>
        <DataArray type="Float32" NumberOfComponents="3" format="ascii">
                       0.00000                       0.00000                       0.00000
                       0.00000                       0.00000                       2.63930
                       0.00000                       0.00000                       5.27861
                       0.00000                       0.00000                       7.91791
                       0.00000                       0.00000                      10.55722
                       0.00000                       0.00000                      13.19652
                       0.00000                       0.00000                      15.83582
                       0.00000                       0.00000                      18.47513
                       0.00000                       0.00000                      21.11443
                       0.00000                       0.00000                      23.75374
                       0.00000                       0.00000                      26.39304
                       0.00000                       0.00000                      29.03234
                       0.00000                       0.00000                      31.67165
                       0.00000                       0.00000                      34.31095
                       0.00000                       0.00000                      36.95026
                       0.00000                       0.00000                      39.58956
                       0.00000                       0.00000                      42.22886
                       0.00000                       0.00000                      44.86817
                       0.00000                       0.00000                      47.50747
                       0.00000                       0.00000                      50.14677
                       0.00000                       0.00000                      52.78608
                       0.00000                       0.00000                      55.42538
                       0.00000                       0.00000                      58.06469
                       0.00000                       0.00000                      60.70399
                       0.00000                       0.00000                      63.34330
                       0.00000                       0.00000                      65.98260
                       0.00000                       0.00000                      68.62190
                       0.00000                       0.00000                      71.26121
                       0.00000                       0.00000                      73.90051
                       0.00000                       0.00000                      76.53982
                       0.00000                       0.00000                      79.17912
                       0.00000                       0.00000                      81.81842
                       0.00000                       0.00000                      84.45773
                       0.00000                       0.00000                      87.09703
                       0.00000                       0.00000                      89.73634
                       0.00000                       0.00000                      92.37564
                       0.00000                       0.00000                      95.01495
                       0.00000                       0.00000                      97.65425
                       0.00000                       0.00000                     100.29355
                       0.00000                       0.00000                     102.93285
                       0.00000                       0.00000                     105.57216
                       0.00000                       0.00000                     108.21146
                       0.00000                       0.00000                     110.85077
                       0.00000                       0.00000                     113.49007
                       0.00000                       0.00000                     116.12938
                       0.00000                       0.00000                     118.76868
                       0.00000                       0.00000                     121.40798
                       0.00000                       0.00000                     124.04729
                       0.00000                       0.00000                     126.68659
                       0.00000                       0.00000                     129.32590
                       0.00000                       0.00000                     131.96519
        </DataArray>
      </Points>
      <PointData>
        <DataArray type="Float32" Name="RefOrientationX" NumberOfComponents="3" format="ascii">
                       0.96321                      -0.26875                       0.00000
                       0.96318                      -0.26885                       0.00000
                       0.96423                      -0.26506                       0.00000
                       0.96615                      -0.25797                       0.00000
                       0.96873                      -0.24813                       0.00000
                       0.97175                      -0.23603                       0.00000
                       0.97502                      -0.22212                       0.00000
                       0.97837                      -0.20684                       0.00000
                       0.98167                      -0.19056                       0.00000
                       0.98481                      -0.17365                       0.00000
                       0.98769                      -0.15641                       0.00000
                       0.99027                      -0.13915                       0.00000
                       0.99252                      -0.12211                       0.00000
                       0.99442                      -0.10553                       0.00000
                       0.99598                      -0.08960                       0.00000
                       0.99722                      -0.07447                       0.00000
                       0.99818                      -0.06030                       0.00000
                       0.99889                      -0.04718                       0.00000
                       0.99938                      -0.03519                       0.00000
                       0.99970                      -0.02439                       0.00000
                       0.99989                      -0.01481                       0.00000
                       0.99998                      -0.00647                       0.00000
                       1.00000                       0.00064                       0.00000
                       0.99998                       0.00656                       0.00000
                       0.99994                       0.01131                       0.00000
                       0.99989                       0.01496                       0.00000
                       0.99985                       0.01758                       0.00000
                       0.99982                       0.01923                       0.00000
                       0.99980                       0.02001                       0.00000
                       0.99980                       0.02002                       0.00000
                       0.99981                       0.01934                       0.00000
                       0.99984                       0.01809                       0.00000
                       0.99987                       0.01638                       0.00000
                       0.99990                       0.01430                       0.00000
                       0.99993                       0.01197                       0.00000
                       0.99995                       0.00949                       0.00000
                       0.99998                       0.00697                       0.00000
                       0.99999                       0.00449                       0.00000
                       1.00000                       0.00215                       0.00000
                       1.00000                       0.00002                       0.00000
                       1.00000                      -0.00181                       0.00000
                       0.99999                      -0.00330                       0.00000
                       0.99999                      -0.00441                       0.00000
                       0.99999                      -0.00509                       0.00000
                       0.99999                      -0.00535                       0.00000
                       0.99999                      -0.00518                       0.00000
                       0.99999                      -0.00461                       0.00000
                       0.99999                      -0.00369                       0.00000
                       1.00000                      -0.00249                       0.00000
                       1.00000                      -0.00110                       0.00000
                       1.00000                       0.00035                       0.00000
        </DataArray>
        <DataArray type="Float32" Name="RefOrientationY" NumberOfComponents="3" format="ascii">
                       0.26875                       0.96321                       0.00000
                       0.26885                       0.96318                       0.00000
                       0.26506                       0.96423                       0.00000
                       0.25797                       0.96615                       0.00000
                       0.24813                       0.96873                       0.00000
                       0.23603                       0.97175                       0.00000
                       0.22212                       0.97502                       0.00000
                       0.20684                       0.97837                       0.00000
                       0.19056                       0.98167                       0.00000
                       0.17365                       0.98481                       0.00000
                       0.15641                       0.98769                       0.00000
                       0.13915                       0.99027                       0.00000
                       0.12211                       0.99252                       0.00000
                       0.10553                       0.99442                       0.00000
                       0.08960                       0.99598                       0.00000
                       0.07447                       0.99722                       0.00000
                       0.06030                       0.99818                       0.00000
                       0.04718                       0.99889                       0.00000
                       0.03519                       0.99938                       0.00000
                       0.02439                       0.99970                       0.00000
                       0.01481                       0.99989                       0.00000
                       0.00647                       0.99998                       0.00000
                      -0.00064                       1.00000                       0.00000
                      -0.00656                       0.99998                       0.00000
                      -0.01131                       0.99994                       0.00000
                      -0.01496                       0.99989                       0.00000
                      -0.01758                       0.99985                       0.00000
                      -0.01923                       0.99982                       0.00000
                      -0.02001                       0.99980                       0.00000
                      -0.02002                       0.99980                       0.00000
                      -0.01934                       0.99981                       0.00000
                      -0.01809                       0.99984                       0.00000
                      -0.01638                       0.99987                       0.00000
                      -0.01430                       0.99990                       0.00000
                      -0.01197                       0.99993                       0.00000
                      -0.00949                       0.99995                       0.00000
                      -0.00697                       0.99998                       0.00000
                      -0.00449                       0.99999                       0.00000
                      -0.00215                       1.00000                       0.00000
                      -0.00002                       1.00000                       0.00000
                       0.00181                       1.00000                       0.00000
                       0.00330                       0.99999                       0.00000
                       0.00441                       0.99999                       0.00000
                       0.00509                       0.99999                       0.00000
                       0.00535                       0.99999                       0.00000
                       0.00518                       0.99999                       0.00000
                       0.00461                       0.99999                       0.00000
                       0.00369                       0.99999                       0.00000
                       0.00249                       1.00000                       0.00000
                       0.00110                       1.00000                       0.00000
                      -0.00035                       1.00000                       0.00000
        </DataArray>
        <DataArray type="Float32" Name="RefOrientationZ" NumberOfComponents="3" format="ascii">
                       0.00000                       0.00000                       1.00000
                       0.00000                       0.00000                       1.00000
                       0.00000                       0.00000                       1.00000
                       0.00000                       0.00000                       1.00000
                       0.00000                       0.00000                       1.00000
                       0.00000                       0.00000                       1.00000
                       0.00000                       0.00000                       1.00000
                       0.00000                       0.00000                       1.00000
                       0.00000                       0.00000                       1.00000
                       0.00000                       0.00000                       1.00000
                       0.00000                       0.00000                       1.00000
                       0.00000                       0.00000                       1.00000
                       0.00000                       0.00000                       1.00000
                       0.00000                       0.00000                       1.00000
                       0.00000                       0.00000                       1.00000
                       0.00000                       0.00000                       1.00000
                       0.00000                       0.00000                       1.00000
                       0.00000                       0.00000                       1.00000
                       0.00000                       0.00000                       1.00000
                       0.00000                       0.00000                       1.00000
                       0.00000                       0.00000                       1.00000
                       0.00000                       0.00000                       1.00000
                       0.00000                       0.00000                       1.00000
                       0.00000                       0.00000                       1.00000
                       0.00000                       0.00000                       1.00000
                       0.00000                       0.00000                       1.00000
                       0.00000                       0.00000                       1.00000
                       0.00000                       0.00000                       1.00000
                       0.00000                       0.00000                       1.00000
                       0.00000                       0.00000                       1.00000
                       0.00000                       0.00000                       1.00000
                       0.00000                       0.00000                       1.00000
                       0.00000                       0.00000                       1.00000
                       0.00000                       0.00000                       1.00000
                       0.00000                       0.00000                       1.00000
                       0.00000                       0.00000                       1.00000
                       0.00000                       0.00000                       1.00000
                       0.00000                       0.00000                       1.00000
                       0.00000                       0.00000                       1.00000
                       0.00000                       0.00000                       1.00000
                       0.00000                       0.00000                       1.00000
                       0.00000                       0.00000                       1.00000
                       0.00000                       0.00000                       1.00000
                       0.00000                       0.00000                       1.00000
                       0.00000                       0.00000                       1.00000
                       0.00000                       0.00000                       1.00000
                       0.00000                       0.00000                       1.00000
                       0.00000                       0.00000                       1.00000
                       0.00000                       0.00000                       1.00000
                       0.00000                       0.00000                       1.00000
                       0.00000                       0.00000                       1.00000
        </DataArray>
      </PointData>
      <Lines>
        <DataArray type="Int32" Name="connectivity" format="ascii">
      0      1
      1      2
      2      3
      3      4
      4      5
      5      6
      6      7
      7      8
      8      9
      9     10
     10     11
     11     12
     12     13
     13     14
     14     15
     15     16
     16     17
     17     18
     18     19
     19     20
     20     21
     21     22
     22     23
     23     24
     24     25
     25     26
     26     27
     27     28
     28     29
     29     30
     30     31
     31     32
     32     33
     33     34
     34     35
     35     36
     36     37
     37     38
     38     39
     39     40
     40     41
     41     42
     42     43
     43     44
     44     45
     45     46
     46     47
     47     48
     48     49
     49     50
        </DataArray>
        <DataArray type="Int32" Name="offsets" format="ascii">
      2
      4
      6
      8
     10
     12
     14
     16
     18
     20
     22
     24
     26
     28
     30
     32
     34
     36
     38
     40
     42
     44
     46
     48
     50
     52
     54
     56
     58
     60
     62
     64
     66
     68
     70
     72
     74
     76
     78
     80
     82
     84
     86
     88
     90
     92
     94
     96
     98
    100
        </DataArray>
      </Lines>
    </Piece>
  </PolyData>
</VTKFile>
